+ 0 /NodeList/8/DeviceList/0/$ns3::PointToPointNetDevice/TxQueue/Enqueue ns3::PppHeader (Point-to-Point Protocol: IP (0x0021)) ns3::Ipv4Header (tos 0x0 DSCP Default ECN Not-ECT ttl 64 id 0 protocol 6 offset (bytes) 0 flags [none] length: 56 10.1.5.2 > 10.1.6.2) ns3::TcpHeader (49153 > 9 [SYN] Seq=0 Ack=0 Win=65535 ns3::TcpOptionTS(0;0) ns3::TcpOptionWinScale(2) ns3::TcpOptionSackPermitted([sack_perm]) ns3::TcpOptionEnd(EOL))
- 0 /NodeList/8/DeviceList/0/$ns3::PointToPointNetDevice/TxQueue/Dequeue ns3::PppHeader (Point-to-Point Protocol: IP (0x0021)) ns3::Ipv4Header (tos 0x0 DSCP Default ECN Not-ECT ttl 64 id 0 protocol 6 offset (bytes) 0 flags [none] length: 56 10.1.5.2 > 10.1.6.2) ns3::TcpHeader (49153 > 9 [SYN] Seq=0 Ack=0 Win=65535 ns3::TcpOptionTS(0;0) ns3::TcpOptionWinScale(2) ns3::TcpOptionSackPermitted([sack_perm]) ns3::TcpOptionEnd(EOL))
r 0.020232 /NodeList/6/DeviceList/3/$ns3::PointToPointNetDevice/MacRx ns3::PppHeader (Point-to-Point Protocol: IP (0x0021)) ns3::Ipv4Header (tos 0x0 DSCP Default ECN Not-ECT ttl 64 id 0 protocol 6 offset (bytes) 0 flags [none] length: 56 10.1.5.2 > 10.1.6.2) ns3::TcpHeader (49153 > 9 [SYN] Seq=0 Ack=0 Win=65535 ns3::TcpOptionTS(0;0) ns3::TcpOptionWinScale(2) ns3::TcpOptionSackPermitted([sack_perm]) ns3::TcpOptionEnd(EOL))
+ 0.020232 /NodeList/6/DeviceList/0/$ns3::PointToPointNetDevice/TxQueue/Enqueue ns3::PppHeader (Point-to-Point Protocol: IP (0x0021)) ns3::Ipv4Header (tos 0x0 DSCP Default ECN Not-ECT ttl 63 id 0 protocol 6 offset (bytes) 0 flags [none] length: 56 10.1.5.2 > 10.1.6.2) ns3::TcpHeader (49153 > 9 [SYN] Seq=0 Ack=0 Win=65535 ns3::TcpOptionTS(0;0) ns3::TcpOptionWinScale(2) ns3::TcpOptionSackPermitted([sack_perm]) ns3::TcpOptionEnd(EOL))
- 0.020232 /NodeList/6/DeviceList/0/$ns3::PointToPointNetDevice/TxQueue/Dequeue ns3::PppHeader (Point-to-Point Protocol: IP (0x0021)) ns3::Ipv4Header (tos 0x0 DSCP Default ECN Not-ECT ttl 63 id 0 protocol 6 offset (bytes) 0 flags [none] length: 56 10.1.5.2 > 10.1.6.2) ns3::TcpHeader (49153 > 9 [SYN] Seq=0 Ack=0 Win=65535 ns3::TcpOptionTS(0;0) ns3::TcpOptionWinScale(2) ns3::TcpOptionSackPermitted([sack_perm]) ns3::TcpOptionEnd(EOL))
r 0.0343922 /NodeList/1/DeviceList/2/$ns3::PointToPointNetDevice/MacRx ns3::PppHeader (Point-to-Point Protocol: IP (0x0021)) ns3::Ipv4Header (tos 0x0 DSCP Default ECN Not-ECT ttl 63 id 0 protocol 6 offset (bytes) 0 flags [none] length: 56 10.1.5.2 > 10.1.6.2) ns3::TcpHeader (49153 > 9 [SYN] Seq=0 Ack=0 Win=65535 ns3::TcpOptionTS(0;0) ns3::TcpOptionWinScale(2) ns3::TcpOptionSackPermitted([sack_perm]) ns3::TcpOptionEnd(EOL))
+ 0.0343922 /NodeList/1/DeviceList/3/$ns3::PointToPointNetDevice/TxQueue/Enqueue ns3::PppHeader (Point-to-Point Protocol: IP (0x0021)) ns3::Ipv4Header (tos 0x0 DSCP Default ECN Not-ECT ttl 62 id 0 protocol 6 offset (bytes) 0 flags [none] length: 56 10.1.5.2 > 10.1.6.2) ns3::TcpHeader (49153 > 9 [SYN] Seq=0 Ack=0 Win=65535 ns3::TcpOptionTS(0;0) ns3::TcpOptionWinScale(2) ns3::TcpOptionSackPermitted([sack_perm]) ns3::TcpOptionEnd(EOL))
- 0.0343922 /NodeList/1/DeviceList/3/$ns3::PointToPointNetDevice/TxQueue/Dequeue ns3::PppHeader (Point-to-Point Protocol: IP (0x0021)) ns3::Ipv4Header (tos 0x0 DSCP Default ECN Not-ECT ttl 62 id 0 protocol 6 offset (bytes) 0 flags [none] length: 56 10.1.5.2 > 10.1.6.2) ns3::TcpHeader (49153 > 9 [SYN] Seq=0 Ack=0 Win=65535 ns3::TcpOptionTS(0;0) ns3::TcpOptionWinScale(2) ns3::TcpOptionSackPermitted([sack_perm]) ns3::TcpOptionEnd(EOL))
r 0.0546242 /NodeList/9/DeviceList/0/$ns3::PointToPointNetDevice/MacRx ns3::PppHeader (Point-to-Point Protocol: IP (0x0021)) ns3::Ipv4Header (tos 0x0 DSCP Default ECN Not-ECT ttl 62 id 0 protocol 6 offset (bytes) 0 flags [none] length: 56 10.1.5.2 > 10.1.6.2) ns3::TcpHeader (49153 > 9 [SYN] Seq=0 Ack=0 Win=65535 ns3::TcpOptionTS(0;0) ns3::TcpOptionWinScale(2) ns3::TcpOptionSackPermitted([sack_perm]) ns3::TcpOptionEnd(EOL))
+ 0.0546242 /NodeList/9/DeviceList/0/$ns3::PointToPointNetDevice/TxQueue/Enqueue ns3::PppHeader (Point-to-Point Protocol: IP (0x0021)) ns3::Ipv4Header (tos 0x0 DSCP Default ECN Not-ECT ttl 64 id 0 protocol 6 offset (bytes) 0 flags [none] length: 40 10.1.6.2 > 10.1.5.2) ns3::TcpHeader (9 > 49153 [RST|ACK] Seq=0 Ack=1 Win=65535)
- 0.0546242 /NodeList/9/DeviceList/0/$ns3::PointToPointNetDevice/TxQueue/Dequeue ns3::PppHeader (Point-to-Point Protocol: IP (0x0021)) ns3::Ipv4Header (tos 0x0 DSCP Default ECN Not-ECT ttl 64 id 0 protocol 6 offset (bytes) 0 flags [none] length: 40 10.1.6.2 > 10.1.5.2) ns3::TcpHeader (9 > 49153 [RST|ACK] Seq=0 Ack=1 Win=65535)
r 0.0747922 /NodeList/1/DeviceList/3/$ns3::PointToPointNetDevice/MacRx ns3::PppHeader (Point-to-Point Protocol: IP (0x0021)) ns3::Ipv4Header (tos 0x0 DSCP Default ECN Not-ECT ttl 64 id 0 protocol 6 offset (bytes) 0 flags [none] length: 40 10.1.6.2 > 10.1.5.2) ns3::TcpHeader (9 > 49153 [RST|ACK] Seq=0 Ack=1 Win=65535)
+ 0.0747922 /NodeList/1/DeviceList/2/$ns3::PointToPointNetDevice/TxQueue/Enqueue ns3::PppHeader (Point-to-Point Protocol: IP (0x0021)) ns3::Ipv4Header (tos 0x0 DSCP Default ECN Not-ECT ttl 63 id 0 protocol 6 offset (bytes) 0 flags [none] length: 40 10.1.6.2 > 10.1.5.2) ns3::TcpHeader (9 > 49153 [RST|ACK] Seq=0 Ack=1 Win=65535)
- 0.0747922 /NodeList/1/DeviceList/2/$ns3::PointToPointNetDevice/TxQueue/Dequeue ns3::PppHeader (Point-to-Point Protocol: IP (0x0021)) ns3::Ipv4Header (tos 0x0 DSCP Default ECN Not-ECT ttl 63 id 0 protocol 6 offset (bytes) 0 flags [none] length: 40 10.1.6.2 > 10.1.5.2) ns3::TcpHeader (9 > 49153 [RST|ACK] Seq=0 Ack=1 Win=65535)
r 0.0850461 /NodeList/6/DeviceList/0/$ns3::PointToPointNetDevice/MacRx ns3::PppHeader (Point-to-Point Protocol: IP (0x0021)) ns3::Ipv4Header (tos 0x0 DSCP Default ECN Not-ECT ttl 63 id 0 protocol 6 offset (bytes) 0 flags [none] length: 40 10.1.6.2 > 10.1.5.2) ns3::TcpHeader (9 > 49153 [RST|ACK] Seq=0 Ack=1 Win=65535)
+ 0.0850461 /NodeList/6/DeviceList/3/$ns3::PointToPointNetDevice/TxQueue/Enqueue ns3::PppHeader (Point-to-Point Protocol: IP (0x0021)) ns3::Ipv4Header (tos 0x0 DSCP Default ECN Not-ECT ttl 62 id 0 protocol 6 offset (bytes) 0 flags [none] length: 40 10.1.6.2 > 10.1.5.2) ns3::TcpHeader (9 > 49153 [RST|ACK] Seq=0 Ack=1 Win=65535)
- 0.0850461 /NodeList/6/DeviceList/3/$ns3::PointToPointNetDevice/TxQueue/Dequeue ns3::PppHeader (Point-to-Point Protocol: IP (0x0021)) ns3::Ipv4Header (tos 0x0 DSCP Default ECN Not-ECT ttl 62 id 0 protocol 6 offset (bytes) 0 flags [none] length: 40 10.1.6.2 > 10.1.5.2) ns3::TcpHeader (9 > 49153 [RST|ACK] Seq=0 Ack=1 Win=65535)
r 0.105214 /NodeList/8/DeviceList/0/$ns3::PointToPointNetDevice/MacRx ns3::PppHeader (Point-to-Point Protocol: IP (0x0021)) ns3::Ipv4Header (tos 0x0 DSCP Default ECN Not-ECT ttl 62 id 0 protocol 6 offset (bytes) 0 flags [none] length: 40 10.1.6.2 > 10.1.5.2) ns3::TcpHeader (9 > 49153 [RST|ACK] Seq=0 Ack=1 Win=65535)
+ 1 /NodeList/7/DeviceList/0/$ns3::PointToPointNetDevice/TxQueue/Enqueue ns3::PppHeader (Point-to-Point Protocol: IP (0x0021)) ns3::Ipv4Header (tos 0x0 DSCP Default ECN Not-ECT ttl 64 id 0 protocol 6 offset (bytes) 0 flags [none] length: 56 10.1.4.2 > 10.1.1.2) ns3::TcpHeader (49153 > 9 [SYN] Seq=0 Ack=0 Win=65535 ns3::TcpOptionTS(1000;0) ns3::TcpOptionWinScale(2) ns3::TcpOptionSackPermitted([sack_perm]) ns3::TcpOptionEnd(EOL))
- 1 /NodeList/7/DeviceList/0/$ns3::PointToPointNetDevice/TxQueue/Dequeue ns3::PppHeader (Point-to-Point Protocol: IP (0x0021)) ns3::Ipv4Header (tos 0x0 DSCP Default ECN Not-ECT ttl 64 id 0 protocol 6 offset (bytes) 0 flags [none] length: 56 10.1.4.2 > 10.1.1.2) ns3::TcpHeader (49153 > 9 [SYN] Seq=0 Ack=0 Win=65535 ns3::TcpOptionTS(1000;0) ns3::TcpOptionWinScale(2) ns3::TcpOptionSackPermitted([sack_perm]) ns3::TcpOptionEnd(EOL))
r 1.02023 /NodeList/6/DeviceList/2/$ns3::PointToPointNetDevice/MacRx ns3::PppHeader (Point-to-Point Protocol: IP (0x0021)) ns3::Ipv4Header (tos 0x0 DSCP Default ECN Not-ECT ttl 64 id 0 protocol 6 offset (bytes) 0 flags [none] length: 56 10.1.4.2 > 10.1.1.2) ns3::TcpHeader (49153 > 9 [SYN] Seq=0 Ack=0 Win=65535 ns3::TcpOptionTS(1000;0) ns3::TcpOptionWinScale(2) ns3::TcpOptionSackPermitted([sack_perm]) ns3::TcpOptionEnd(EOL))
+ 1.02023 /NodeList/6/DeviceList/0/$ns3::PointToPointNetDevice/TxQueue/Enqueue ns3::PppHeader (Point-to-Point Protocol: IP (0x0021)) ns3::Ipv4Header (tos 0x0 DSCP Default ECN Not-ECT ttl 63 id 0 protocol 6 offset (bytes) 0 flags [none] length: 56 10.1.4.2 > 10.1.1.2) ns3::TcpHeader (49153 > 9 [SYN] Seq=0 Ack=0 Win=65535 ns3::TcpOptionTS(1000;0) ns3::TcpOptionWinScale(2) ns3::TcpOptionSackPermitted([sack_perm]) ns3::TcpOptionEnd(EOL))
- 1.02023 /NodeList/6/DeviceList/0/$ns3::PointToPointNetDevice/TxQueue/Dequeue ns3::PppHeader (Point-to-Point Protocol: IP (0x0021)) ns3::Ipv4Header (tos 0x0 DSCP Default ECN Not-ECT ttl 63 id 0 protocol 6 offset (bytes) 0 flags [none] length: 56 10.1.4.2 > 10.1.1.2) ns3::TcpHeader (49153 > 9 [SYN] Seq=0 Ack=0 Win=65535 ns3::TcpOptionTS(1000;0) ns3::TcpOptionWinScale(2) ns3::TcpOptionSackPermitted([sack_perm]) ns3::TcpOptionEnd(EOL))
r 1.03439 /NodeList/1/DeviceList/2/$ns3::PointToPointNetDevice/MacRx ns3::PppHeader (Point-to-Point Protocol: IP (0x0021)) ns3::Ipv4Header (tos 0x0 DSCP Default ECN Not-ECT ttl 63 id 0 protocol 6 offset (bytes) 0 flags [none] length: 56 10.1.4.2 > 10.1.1.2) ns3::TcpHeader (49153 > 9 [SYN] Seq=0 Ack=0 Win=65535 ns3::TcpOptionTS(1000;0) ns3::TcpOptionWinScale(2) ns3::TcpOptionSackPermitted([sack_perm]) ns3::TcpOptionEnd(EOL))
+ 1.03439 /NodeList/1/DeviceList/0/$ns3::PointToPointNetDevice/TxQueue/Enqueue ns3::PppHeader (Point-to-Point Protocol: IP (0x0021)) ns3::Ipv4Header (tos 0x0 DSCP Default ECN Not-ECT ttl 62 id 0 protocol 6 offset (bytes) 0 flags [none] length: 56 10.1.4.2 > 10.1.1.2) ns3::TcpHeader (49153 > 9 [SYN] Seq=0 Ack=0 Win=65535 ns3::TcpOptionTS(1000;0) ns3::TcpOptionWinScale(2) ns3::TcpOptionSackPermitted([sack_perm]) ns3::TcpOptionEnd(EOL))
- 1.03439 /NodeList/1/DeviceList/0/$ns3::PointToPointNetDevice/TxQueue/Dequeue ns3::PppHeader (Point-to-Point Protocol: IP (0x0021)) ns3::Ipv4Header (tos 0x0 DSCP Default ECN Not-ECT ttl 62 id 0 protocol 6 offset (bytes) 0 flags [none] length: 56 10.1.4.2 > 10.1.1.2) ns3::TcpHeader (49153 > 9 [SYN] Seq=0 Ack=0 Win=65535 ns3::TcpOptionTS(1000;0) ns3::TcpOptionWinScale(2) ns3::TcpOptionSackPermitted([sack_perm]) ns3::TcpOptionEnd(EOL))
r 1.05462 /NodeList/0/DeviceList/0/$ns3::PointToPointNetDevice/MacRx ns3::PppHeader (Point-to-Point Protocol: IP (0x0021)) ns3::Ipv4Header (tos 0x0 DSCP Default ECN Not-ECT ttl 62 id 0 protocol 6 offset (bytes) 0 flags [none] length: 56 10.1.4.2 > 10.1.1.2) ns3::TcpHeader (49153 > 9 [SYN] Seq=0 Ack=0 Win=65535 ns3::TcpOptionTS(1000;0) ns3::TcpOptionWinScale(2) ns3::TcpOptionSackPermitted([sack_perm]) ns3::TcpOptionEnd(EOL))
+ 1.06631 /NodeList/0/DeviceList/0/$ns3::PointToPointNetDevice/TxQueue/Enqueue ns3::PppHeader (Point-to-Point Protocol: IP (0x0021)) ns3::Ipv4Header (tos 0x0 DSCP Default ECN Not-ECT ttl 63 id 0 protocol 6 offset (bytes) 0 flags [none] length: 56 10.1.1.2 > 10.1.4.2) ns3::TcpHeader (9 > 49153 [SYN|ACK] Seq=0 Ack=1 Win=65535 ns3::TcpOptionTS(1062;1000) ns3::TcpOptionWinScale(2) ns3::TcpOptionSackPermitted([sack_perm]) ns3::TcpOptionEnd(EOL))
- 1.06631 /NodeList/0/DeviceList/0/$ns3::PointToPointNetDevice/TxQueue/Dequeue ns3::PppHeader (Point-to-Point Protocol: IP (0x0021)) ns3::Ipv4Header (tos 0x0 DSCP Default ECN Not-ECT ttl 63 id 0 protocol 6 offset (bytes) 0 flags [none] length: 56 10.1.1.2 > 10.1.4.2) ns3::TcpHeader (9 > 49153 [SYN|ACK] Seq=0 Ack=1 Win=65535 ns3::TcpOptionTS(1062;1000) ns3::TcpOptionWinScale(2) ns3::TcpOptionSackPermitted([sack_perm]) ns3::TcpOptionEnd(EOL))
r 1.08655 /NodeList/1/DeviceList/0/$ns3::PointToPointNetDevice/MacRx ns3::PppHeader (Point-to-Point Protocol: IP (0x0021)) ns3::Ipv4Header (tos 0x0 DSCP Default ECN Not-ECT ttl 63 id 0 protocol 6 offset (bytes) 0 flags [none] length: 56 10.1.1.2 > 10.1.4.2) ns3::TcpHeader (9 > 49153 [SYN|ACK] Seq=0 Ack=1 Win=65535 ns3::TcpOptionTS(1062;1000) ns3::TcpOptionWinScale(2) ns3::TcpOptionSackPermitted([sack_perm]) ns3::TcpOptionEnd(EOL))
+ 1.08655 /NodeList/1/DeviceList/2/$ns3::PointToPointNetDevice/TxQueue/Enqueue ns3::PppHeader (Point-to-Point Protocol: IP (0x0021)) ns3::Ipv4Header (tos 0x0 DSCP Default ECN Not-ECT ttl 62 id 0 protocol 6 offset (bytes) 0 flags [none] length: 56 10.1.1.2 > 10.1.4.2) ns3::TcpHeader (9 > 49153 [SYN|ACK] Seq=0 Ack=1 Win=65535 ns3::TcpOptionTS(1062;1000) ns3::TcpOptionWinScale(2) ns3::TcpOptionSackPermitted([sack_perm]) ns3::TcpOptionEnd(EOL))
- 1.08655 /NodeList/1/DeviceList/2/$ns3::PointToPointNetDevice/TxQueue/Dequeue ns3::PppHeader (Point-to-Point Protocol: IP (0x0021)) ns3::Ipv4Header (tos 0x0 DSCP Default ECN Not-ECT ttl 62 id 0 protocol 6 offset (bytes) 0 flags [none] length: 56 10.1.1.2 > 10.1.4.2) ns3::TcpHeader (9 > 49153 [SYN|ACK] Seq=0 Ack=1 Win=65535 ns3::TcpOptionTS(1062;1000) ns3::TcpOptionWinScale(2) ns3::TcpOptionSackPermitted([sack_perm]) ns3::TcpOptionEnd(EOL))
r 1.10071 /NodeList/6/DeviceList/0/$ns3::PointToPointNetDevice/MacRx ns3::PppHeader (Point-to-Point Protocol: IP (0x0021)) ns3::Ipv4Header (tos 0x0 DSCP Default ECN Not-ECT ttl 62 id 0 protocol 6 offset (bytes) 0 flags [none] length: 56 10.1.1.2 > 10.1.4.2) ns3::TcpHeader (9 > 49153 [SYN|ACK] Seq=0 Ack=1 Win=65535 ns3::TcpOptionTS(1062;1000) ns3::TcpOptionWinScale(2) ns3::TcpOptionSackPermitted([sack_perm]) ns3::TcpOptionEnd(EOL))
+ 1.10071 /NodeList/6/DeviceList/2/$ns3::PointToPointNetDevice/TxQueue/Enqueue ns3::PppHeader (Point-to-Point Protocol: IP (0x0021)) ns3::Ipv4Header (tos 0x0 DSCP Default ECN Not-ECT ttl 61 id 0 protocol 6 offset (bytes) 0 flags [none] length: 56 10.1.1.2 > 10.1.4.2) ns3::TcpHeader (9 > 49153 [SYN|ACK] Seq=0 Ack=1 Win=65535 ns3::TcpOptionTS(1062;1000) ns3::TcpOptionWinScale(2) ns3::TcpOptionSackPermitted([sack_perm]) ns3::TcpOptionEnd(EOL))
- 1.10071 /NodeList/6/DeviceList/2/$ns3::PointToPointNetDevice/TxQueue/Dequeue ns3::PppHeader (Point-to-Point Protocol: IP (0x0021)) ns3::Ipv4Header (tos 0x0 DSCP Default ECN Not-ECT ttl 61 id 0 protocol 6 offset (bytes) 0 flags [none] length: 56 10.1.1.2 > 10.1.4.2) ns3::TcpHeader (9 > 49153 [SYN|ACK] Seq=0 Ack=1 Win=65535 ns3::TcpOptionTS(1062;1000) ns3::TcpOptionWinScale(2) ns3::TcpOptionSackPermitted([sack_perm]) ns3::TcpOptionEnd(EOL))
r 1.12094 /NodeList/7/DeviceList/0/$ns3::PointToPointNetDevice/MacRx ns3::PppHeader (Point-to-Point Protocol: IP (0x0021)) ns3::Ipv4Header (tos 0x0 DSCP Default ECN Not-ECT ttl 61 id 0 protocol 6 offset (bytes) 0 flags [none] length: 56 10.1.1.2 > 10.1.4.2) ns3::TcpHeader (9 > 49153 [SYN|ACK] Seq=0 Ack=1 Win=65535 ns3::TcpOptionTS(1062;1000) ns3::TcpOptionWinScale(2) ns3::TcpOptionSackPermitted([sack_perm]) ns3::TcpOptionEnd(EOL))
+ 1.12094 /NodeList/7/DeviceList/0/$ns3::PointToPointNetDevice/TxQueue/Enqueue ns3::PppHeader (Point-to-Point Protocol: IP (0x0021)) ns3::Ipv4Header (tos 0x0 DSCP Default ECN Not-ECT ttl 64 id 1 protocol 6 offset (bytes) 0 flags [none] length: 52 10.1.4.2 > 10.1.1.2) ns3::TcpHeader (49153 > 9 [ACK] Seq=1 Ack=1 Win=32768 ns3::TcpOptionTS(1120;1062) ns3::TcpOptionEnd(EOL))
- 1.12094 /NodeList/7/DeviceList/0/$ns3::PointToPointNetDevice/TxQueue/Dequeue ns3::PppHeader (Point-to-Point Protocol: IP (0x0021)) ns3::Ipv4Header (tos 0x0 DSCP Default ECN Not-ECT ttl 64 id 1 protocol 6 offset (bytes) 0 flags [none] length: 52 10.1.4.2 > 10.1.1.2) ns3::TcpHeader (49153 > 9 [ACK] Seq=1 Ack=1 Win=32768 ns3::TcpOptionTS(1120;1062) ns3::TcpOptionEnd(EOL))
+ 1.12094 /NodeList/7/DeviceList/0/$ns3::PointToPointNetDevice/TxQueue/Enqueue ns3::PppHeader (Point-to-Point Protocol: IP (0x0021)) ns3::Ipv4Header (tos 0x0 DSCP Default ECN Not-ECT ttl 64 id 2 protocol 6 offset (bytes) 0 flags [none] length: 82 10.1.4.2 > 10.1.1.2) ns3::TcpHeader (49153 > 9 [FIN|ACK] Seq=1 Ack=1 Win=32768 ns3::TcpOptionTS(1120;1062) ns3::TcpOptionEnd(EOL)) Payload (size=30)
- 1.12115 /NodeList/7/DeviceList/0/$ns3::PointToPointNetDevice/TxQueue/Dequeue ns3::PppHeader (Point-to-Point Protocol: IP (0x0021)) ns3::Ipv4Header (tos 0x0 DSCP Default ECN Not-ECT ttl 64 id 2 protocol 6 offset (bytes) 0 flags [none] length: 82 10.1.4.2 > 10.1.1.2) ns3::TcpHeader (49153 > 9 [FIN|ACK] Seq=1 Ack=1 Win=32768 ns3::TcpOptionTS(1120;1062) ns3::TcpOptionEnd(EOL)) Payload (size=30)
r 1.14115 /NodeList/6/DeviceList/2/$ns3::PointToPointNetDevice/MacRx ns3::PppHeader (Point-to-Point Protocol: IP (0x0021)) ns3::Ipv4Header (tos 0x0 DSCP Default ECN Not-ECT ttl 64 id 1 protocol 6 offset (bytes) 0 flags [none] length: 52 10.1.4.2 > 10.1.1.2) ns3::TcpHeader (49153 > 9 [ACK] Seq=1 Ack=1 Win=32768 ns3::TcpOptionTS(1120;1062) ns3::TcpOptionEnd(EOL))
+ 1.14115 /NodeList/6/DeviceList/0/$ns3::PointToPointNetDevice/TxQueue/Enqueue ns3::PppHeader (Point-to-Point Protocol: IP (0x0021)) ns3::Ipv4Header (tos 0x0 DSCP Default ECN Not-ECT ttl 63 id 1 protocol 6 offset (bytes) 0 flags [none] length: 52 10.1.4.2 > 10.1.1.2) ns3::TcpHeader (49153 > 9 [ACK] Seq=1 Ack=1 Win=32768 ns3::TcpOptionTS(1120;1062) ns3::TcpOptionEnd(EOL))
- 1.14115 /NodeList/6/DeviceList/0/$ns3::PointToPointNetDevice/TxQueue/Dequeue ns3::PppHeader (Point-to-Point Protocol: IP (0x0021)) ns3::Ipv4Header (tos 0x0 DSCP Default ECN Not-ECT ttl 63 id 1 protocol 6 offset (bytes) 0 flags [none] length: 52 10.1.4.2 > 10.1.1.2) ns3::TcpHeader (49153 > 9 [ACK] Seq=1 Ack=1 Win=32768 ns3::TcpOptionTS(1120;1062) ns3::TcpOptionEnd(EOL))
r 1.14149 /NodeList/6/DeviceList/2/$ns3::PointToPointNetDevice/MacRx ns3::PppHeader (Point-to-Point Protocol: IP (0x0021)) ns3::Ipv4Header (tos 0x0 DSCP Default ECN Not-ECT ttl 64 id 2 protocol 6 offset (bytes) 0 flags [none] length: 82 10.1.4.2 > 10.1.1.2) ns3::TcpHeader (49153 > 9 [FIN|ACK] Seq=1 Ack=1 Win=32768 ns3::TcpOptionTS(1120;1062) ns3::TcpOptionEnd(EOL)) Payload (size=30)
+ 1.14149 /NodeList/6/DeviceList/0/$ns3::PointToPointNetDevice/TxQueue/Enqueue ns3::PppHeader (Point-to-Point Protocol: IP (0x0021)) ns3::Ipv4Header (tos 0x0 DSCP Default ECN Not-ECT ttl 63 id 2 protocol 6 offset (bytes) 0 flags [none] length: 82 10.1.4.2 > 10.1.1.2) ns3::TcpHeader (49153 > 9 [FIN|ACK] Seq=1 Ack=1 Win=32768 ns3::TcpOptionTS(1120;1062) ns3::TcpOptionEnd(EOL)) Payload (size=30)
- 1.15434 /NodeList/6/DeviceList/0/$ns3::PointToPointNetDevice/TxQueue/Dequeue ns3::PppHeader (Point-to-Point Protocol: IP (0x0021)) ns3::Ipv4Header (tos 0x0 DSCP Default ECN Not-ECT ttl 63 id 2 protocol 6 offset (bytes) 0 flags [none] length: 82 10.1.4.2 > 10.1.1.2) ns3::TcpHeader (49153 > 9 [FIN|ACK] Seq=1 Ack=1 Win=32768 ns3::TcpOptionTS(1120;1062) ns3::TcpOptionEnd(EOL)) Payload (size=30)
r 1.15434 /NodeList/1/DeviceList/2/$ns3::PointToPointNetDevice/MacRx ns3::PppHeader (Point-to-Point Protocol: IP (0x0021)) ns3::Ipv4Header (tos 0x0 DSCP Default ECN Not-ECT ttl 63 id 1 protocol 6 offset (bytes) 0 flags [none] length: 52 10.1.4.2 > 10.1.1.2) ns3::TcpHeader (49153 > 9 [ACK] Seq=1 Ack=1 Win=32768 ns3::TcpOptionTS(1120;1062) ns3::TcpOptionEnd(EOL))
+ 1.15434 /NodeList/1/DeviceList/0/$ns3::PointToPointNetDevice/TxQueue/Enqueue ns3::PppHeader (Point-to-Point Protocol: IP (0x0021)) ns3::Ipv4Header (tos 0x0 DSCP Default ECN Not-ECT ttl 62 id 1 protocol 6 offset (bytes) 0 flags [none] length: 52 10.1.4.2 > 10.1.1.2) ns3::TcpHeader (49153 > 9 [ACK] Seq=1 Ack=1 Win=32768 ns3::TcpOptionTS(1120;1062) ns3::TcpOptionEnd(EOL))
- 1.15434 /NodeList/1/DeviceList/0/$ns3::PointToPointNetDevice/TxQueue/Dequeue ns3::PppHeader (Point-to-Point Protocol: IP (0x0021)) ns3::Ipv4Header (tos 0x0 DSCP Default ECN Not-ECT ttl 62 id 1 protocol 6 offset (bytes) 0 flags [none] length: 52 10.1.4.2 > 10.1.1.2) ns3::TcpHeader (49153 > 9 [ACK] Seq=1 Ack=1 Win=32768 ns3::TcpOptionTS(1120;1062) ns3::TcpOptionEnd(EOL))
r 1.17455 /NodeList/0/DeviceList/0/$ns3::PointToPointNetDevice/MacRx ns3::PppHeader (Point-to-Point Protocol: IP (0x0021)) ns3::Ipv4Header (tos 0x0 DSCP Default ECN Not-ECT ttl 62 id 1 protocol 6 offset (bytes) 0 flags [none] length: 52 10.1.4.2 > 10.1.1.2) ns3::TcpHeader (49153 > 9 [ACK] Seq=1 Ack=1 Win=32768 ns3::TcpOptionTS(1120;1062) ns3::TcpOptionEnd(EOL))
r 1.17485 /NodeList/1/DeviceList/2/$ns3::PointToPointNetDevice/MacRx ns3::PppHeader (Point-to-Point Protocol: IP (0x0021)) ns3::Ipv4Header (tos 0x0 DSCP Default ECN Not-ECT ttl 63 id 2 protocol 6 offset (bytes) 0 flags [none] length: 82 10.1.4.2 > 10.1.1.2) ns3::TcpHeader (49153 > 9 [FIN|ACK] Seq=1 Ack=1 Win=32768 ns3::TcpOptionTS(1120;1062) ns3::TcpOptionEnd(EOL)) Payload (size=30)
+ 1.17485 /NodeList/1/DeviceList/0/$ns3::PointToPointNetDevice/TxQueue/Enqueue ns3::PppHeader (Point-to-Point Protocol: IP (0x0021)) ns3::Ipv4Header (tos 0x0 DSCP Default ECN Not-ECT ttl 62 id 2 protocol 6 offset (bytes) 0 flags [none] length: 82 10.1.4.2 > 10.1.1.2) ns3::TcpHeader (49153 > 9 [FIN|ACK] Seq=1 Ack=1 Win=32768 ns3::TcpOptionTS(1120;1062) ns3::TcpOptionEnd(EOL)) Payload (size=30)
- 1.17485 /NodeList/1/DeviceList/0/$ns3::PointToPointNetDevice/TxQueue/Dequeue ns3::PppHeader (Point-to-Point Protocol: IP (0x0021)) ns3::Ipv4Header (tos 0x0 DSCP Default ECN Not-ECT ttl 62 id 2 protocol 6 offset (bytes) 0 flags [none] length: 82 10.1.4.2 > 10.1.1.2) ns3::TcpHeader (49153 > 9 [FIN|ACK] Seq=1 Ack=1 Win=32768 ns3::TcpOptionTS(1120;1062) ns3::TcpOptionEnd(EOL)) Payload (size=30)
r 1.19518 /NodeList/0/DeviceList/0/$ns3::PointToPointNetDevice/MacRx ns3::PppHeader (Point-to-Point Protocol: IP (0x0021)) ns3::Ipv4Header (tos 0x0 DSCP Default ECN Not-ECT ttl 62 id 2 protocol 6 offset (bytes) 0 flags [none] length: 82 10.1.4.2 > 10.1.1.2) ns3::TcpHeader (49153 > 9 [FIN|ACK] Seq=1 Ack=1 Win=32768 ns3::TcpOptionTS(1120;1062) ns3::TcpOptionEnd(EOL)) Payload (size=30)
+ 1.19547 /NodeList/0/DeviceList/0/$ns3::PointToPointNetDevice/TxQueue/Enqueue ns3::PppHeader (Point-to-Point Protocol: IP (0x0021)) ns3::Ipv4Header (tos 0x0 DSCP Default ECN Not-ECT ttl 63 id 1 protocol 6 offset (bytes) 0 flags [none] length: 52 10.1.1.2 > 10.1.4.2) ns3::TcpHeader (9 > 49153 [ACK] Seq=1 Ack=32 Win=32768 ns3::TcpOptionTS(1195;1120) ns3::TcpOptionEnd(EOL))
- 1.19547 /NodeList/0/DeviceList/0/$ns3::PointToPointNetDevice/TxQueue/Dequeue ns3::PppHeader (Point-to-Point Protocol: IP (0x0021)) ns3::Ipv4Header (tos 0x0 DSCP Default ECN Not-ECT ttl 63 id 1 protocol 6 offset (bytes) 0 flags [none] length: 52 10.1.1.2 > 10.1.4.2) ns3::TcpHeader (9 > 49153 [ACK] Seq=1 Ack=32 Win=32768 ns3::TcpOptionTS(1195;1120) ns3::TcpOptionEnd(EOL))
+ 1.1956 /NodeList/0/DeviceList/0/$ns3::PointToPointNetDevice/TxQueue/Enqueue ns3::PppHeader (Point-to-Point Protocol: IP (0x0021)) ns3::Ipv4Header (tos 0x0 DSCP Default ECN Not-ECT ttl 63 id 2 protocol 6 offset (bytes) 0 flags [none] length: 52 10.1.1.2 > 10.1.4.2) ns3::TcpHeader (9 > 49153 [FIN|ACK] Seq=1 Ack=32 Win=32768 ns3::TcpOptionTS(1195;1120) ns3::TcpOptionEnd(EOL))
- 1.19568 /NodeList/0/DeviceList/0/$ns3::PointToPointNetDevice/TxQueue/Dequeue ns3::PppHeader (Point-to-Point Protocol: IP (0x0021)) ns3::Ipv4Header (tos 0x0 DSCP Default ECN Not-ECT ttl 63 id 2 protocol 6 offset (bytes) 0 flags [none] length: 52 10.1.1.2 > 10.1.4.2) ns3::TcpHeader (9 > 49153 [FIN|ACK] Seq=1 Ack=32 Win=32768 ns3::TcpOptionTS(1195;1120) ns3::TcpOptionEnd(EOL))
r 1.21568 /NodeList/1/DeviceList/0/$ns3::PointToPointNetDevice/MacRx ns3::PppHeader (Point-to-Point Protocol: IP (0x0021)) ns3::Ipv4Header (tos 0x0 DSCP Default ECN Not-ECT ttl 63 id 1 protocol 6 offset (bytes) 0 flags [none] length: 52 10.1.1.2 > 10.1.4.2) ns3::TcpHeader (9 > 49153 [ACK] Seq=1 Ack=32 Win=32768 ns3::TcpOptionTS(1195;1120) ns3::TcpOptionEnd(EOL))
+ 1.21568 /NodeList/1/DeviceList/2/$ns3::PointToPointNetDevice/TxQueue/Enqueue ns3::PppHeader (Point-to-Point Protocol: IP (0x0021)) ns3::Ipv4Header (tos 0x0 DSCP Default ECN Not-ECT ttl 62 id 1 protocol 6 offset (bytes) 0 flags [none] length: 52 10.1.1.2 > 10.1.4.2) ns3::TcpHeader (9 > 49153 [ACK] Seq=1 Ack=32 Win=32768 ns3::TcpOptionTS(1195;1120) ns3::TcpOptionEnd(EOL))
- 1.21568 /NodeList/1/DeviceList/2/$ns3::PointToPointNetDevice/TxQueue/Dequeue ns3::PppHeader (Point-to-Point Protocol: IP (0x0021)) ns3::Ipv4Header (tos 0x0 DSCP Default ECN Not-ECT ttl 62 id 1 protocol 6 offset (bytes) 0 flags [none] length: 52 10.1.1.2 > 10.1.4.2) ns3::TcpHeader (9 > 49153 [ACK] Seq=1 Ack=32 Win=32768 ns3::TcpOptionTS(1195;1120) ns3::TcpOptionEnd(EOL))
r 1.2159 /NodeList/1/DeviceList/0/$ns3::PointToPointNetDevice/MacRx ns3::PppHeader (Point-to-Point Protocol: IP (0x0021)) ns3::Ipv4Header (tos 0x0 DSCP Default ECN Not-ECT ttl 63 id 2 protocol 6 offset (bytes) 0 flags [none] length: 52 10.1.1.2 > 10.1.4.2) ns3::TcpHeader (9 > 49153 [FIN|ACK] Seq=1 Ack=32 Win=32768 ns3::TcpOptionTS(1195;1120) ns3::TcpOptionEnd(EOL))
+ 1.2159 /NodeList/1/DeviceList/2/$ns3::PointToPointNetDevice/TxQueue/Enqueue ns3::PppHeader (Point-to-Point Protocol: IP (0x0021)) ns3::Ipv4Header (tos 0x0 DSCP Default ECN Not-ECT ttl 62 id 2 protocol 6 offset (bytes) 0 flags [none] length: 52 10.1.1.2 > 10.1.4.2) ns3::TcpHeader (9 > 49153 [FIN|ACK] Seq=1 Ack=32 Win=32768 ns3::TcpOptionTS(1195;1120) ns3::TcpOptionEnd(EOL))
- 1.22887 /NodeList/1/DeviceList/2/$ns3::PointToPointNetDevice/TxQueue/Dequeue ns3::PppHeader (Point-to-Point Protocol: IP (0x0021)) ns3::Ipv4Header (tos 0x0 DSCP Default ECN Not-ECT ttl 62 id 2 protocol 6 offset (bytes) 0 flags [none] length: 52 10.1.1.2 > 10.1.4.2) ns3::TcpHeader (9 > 49153 [FIN|ACK] Seq=1 Ack=32 Win=32768 ns3::TcpOptionTS(1195;1120) ns3::TcpOptionEnd(EOL))
r 1.22887 /NodeList/6/DeviceList/0/$ns3::PointToPointNetDevice/MacRx ns3::PppHeader (Point-to-Point Protocol: IP (0x0021)) ns3::Ipv4Header (tos 0x0 DSCP Default ECN Not-ECT ttl 62 id 1 protocol 6 offset (bytes) 0 flags [none] length: 52 10.1.1.2 > 10.1.4.2) ns3::TcpHeader (9 > 49153 [ACK] Seq=1 Ack=32 Win=32768 ns3::TcpOptionTS(1195;1120) ns3::TcpOptionEnd(EOL))
+ 1.22887 /NodeList/6/DeviceList/2/$ns3::PointToPointNetDevice/TxQueue/Enqueue ns3::PppHeader (Point-to-Point Protocol: IP (0x0021)) ns3::Ipv4Header (tos 0x0 DSCP Default ECN Not-ECT ttl 61 id 1 protocol 6 offset (bytes) 0 flags [none] length: 52 10.1.1.2 > 10.1.4.2) ns3::TcpHeader (9 > 49153 [ACK] Seq=1 Ack=32 Win=32768 ns3::TcpOptionTS(1195;1120) ns3::TcpOptionEnd(EOL))
- 1.22887 /NodeList/6/DeviceList/2/$ns3::PointToPointNetDevice/TxQueue/Dequeue ns3::PppHeader (Point-to-Point Protocol: IP (0x0021)) ns3::Ipv4Header (tos 0x0 DSCP Default ECN Not-ECT ttl 61 id 1 protocol 6 offset (bytes) 0 flags [none] length: 52 10.1.1.2 > 10.1.4.2) ns3::TcpHeader (9 > 49153 [ACK] Seq=1 Ack=32 Win=32768 ns3::TcpOptionTS(1195;1120) ns3::TcpOptionEnd(EOL))
r 1.24205 /NodeList/6/DeviceList/0/$ns3::PointToPointNetDevice/MacRx ns3::PppHeader (Point-to-Point Protocol: IP (0x0021)) ns3::Ipv4Header (tos 0x0 DSCP Default ECN Not-ECT ttl 62 id 2 protocol 6 offset (bytes) 0 flags [none] length: 52 10.1.1.2 > 10.1.4.2) ns3::TcpHeader (9 > 49153 [FIN|ACK] Seq=1 Ack=32 Win=32768 ns3::TcpOptionTS(1195;1120) ns3::TcpOptionEnd(EOL))
+ 1.24205 /NodeList/6/DeviceList/2/$ns3::PointToPointNetDevice/TxQueue/Enqueue ns3::PppHeader (Point-to-Point Protocol: IP (0x0021)) ns3::Ipv4Header (tos 0x0 DSCP Default ECN Not-ECT ttl 61 id 2 protocol 6 offset (bytes) 0 flags [none] length: 52 10.1.1.2 > 10.1.4.2) ns3::TcpHeader (9 > 49153 [FIN|ACK] Seq=1 Ack=32 Win=32768 ns3::TcpOptionTS(1195;1120) ns3::TcpOptionEnd(EOL))
- 1.24205 /NodeList/6/DeviceList/2/$ns3::PointToPointNetDevice/TxQueue/Dequeue ns3::PppHeader (Point-to-Point Protocol: IP (0x0021)) ns3::Ipv4Header (tos 0x0 DSCP Default ECN Not-ECT ttl 61 id 2 protocol 6 offset (bytes) 0 flags [none] length: 52 10.1.1.2 > 10.1.4.2) ns3::TcpHeader (9 > 49153 [FIN|ACK] Seq=1 Ack=32 Win=32768 ns3::TcpOptionTS(1195;1120) ns3::TcpOptionEnd(EOL))
r 1.24908 /NodeList/7/DeviceList/0/$ns3::PointToPointNetDevice/MacRx ns3::PppHeader (Point-to-Point Protocol: IP (0x0021)) ns3::Ipv4Header (tos 0x0 DSCP Default ECN Not-ECT ttl 61 id 1 protocol 6 offset (bytes) 0 flags [none] length: 52 10.1.1.2 > 10.1.4.2) ns3::TcpHeader (9 > 49153 [ACK] Seq=1 Ack=32 Win=32768 ns3::TcpOptionTS(1195;1120) ns3::TcpOptionEnd(EOL))
r 1.26227 /NodeList/7/DeviceList/0/$ns3::PointToPointNetDevice/MacRx ns3::PppHeader (Point-to-Point Protocol: IP (0x0021)) ns3::Ipv4Header (tos 0x0 DSCP Default ECN Not-ECT ttl 61 id 2 protocol 6 offset (bytes) 0 flags [none] length: 52 10.1.1.2 > 10.1.4.2) ns3::TcpHeader (9 > 49153 [FIN|ACK] Seq=1 Ack=32 Win=32768 ns3::TcpOptionTS(1195;1120) ns3::TcpOptionEnd(EOL))
+ 1.26227 /NodeList/7/DeviceList/0/$ns3::PointToPointNetDevice/TxQueue/Enqueue ns3::PppHeader (Point-to-Point Protocol: IP (0x0021)) ns3::Ipv4Header (tos 0x0 DSCP Default ECN Not-ECT ttl 64 id 3 protocol 6 offset (bytes) 0 flags [none] length: 52 10.1.4.2 > 10.1.1.2) ns3::TcpHeader (49153 > 9 [ACK] Seq=32 Ack=2 Win=32768 ns3::TcpOptionTS(1262;1195) ns3::TcpOptionEnd(EOL))
- 1.26227 /NodeList/7/DeviceList/0/$ns3::PointToPointNetDevice/TxQueue/Dequeue ns3::PppHeader (Point-to-Point Protocol: IP (0x0021)) ns3::Ipv4Header (tos 0x0 DSCP Default ECN Not-ECT ttl 64 id 3 protocol 6 offset (bytes) 0 flags [none] length: 52 10.1.4.2 > 10.1.1.2) ns3::TcpHeader (49153 > 9 [ACK] Seq=32 Ack=2 Win=32768 ns3::TcpOptionTS(1262;1195) ns3::TcpOptionEnd(EOL))
r 1.28248 /NodeList/6/DeviceList/2/$ns3::PointToPointNetDevice/MacRx ns3::PppHeader (Point-to-Point Protocol: IP (0x0021)) ns3::Ipv4Header (tos 0x0 DSCP Default ECN Not-ECT ttl 64 id 3 protocol 6 offset (bytes) 0 flags [none] length: 52 10.1.4.2 > 10.1.1.2) ns3::TcpHeader (49153 > 9 [ACK] Seq=32 Ack=2 Win=32768 ns3::TcpOptionTS(1262;1195) ns3::TcpOptionEnd(EOL))
+ 1.28248 /NodeList/6/DeviceList/0/$ns3::PointToPointNetDevice/TxQueue/Enqueue ns3::PppHeader (Point-to-Point Protocol: IP (0x0021)) ns3::Ipv4Header (tos 0x0 DSCP Default ECN Not-ECT ttl 63 id 3 protocol 6 offset (bytes) 0 flags [none] length: 52 10.1.4.2 > 10.1.1.2) ns3::TcpHeader (49153 > 9 [ACK] Seq=32 Ack=2 Win=32768 ns3::TcpOptionTS(1262;1195) ns3::TcpOptionEnd(EOL))